# Probe 0 (0.5 0.5 0.5)
#             Probe                   0
#              Time
                 10       1.54021313224
                 20       1.74160547427
                 30       1.85708723076
                 40       1.92838767534
                 50       1.97307800688
                 60       2.00045844369
                 70       2.01611120101
                 80       2.02363235381
                 90       2.02546785554
                100       2.02332914899
                110       2.01844658747
                120       2.01172242276
                130       2.00383617836
                140       1.99528574885
                150       1.98644051289
                160       1.97757424001
                170       1.96888816086
                180       1.96052916507
                190        1.9526024932
                200       1.94518197864
