# Probe 0 (0.5 0.5 0.5)
#             Probe                   0
#              Time
                 10      0.520514720817
                 20      0.431891678852
                 30        0.3892855397
                 40      0.363715351695
                 50      0.346688485249
                 60      0.334676002843
                 70      0.325904548841
                 80      0.319377965877
                 90      0.314482033468
                100      0.310819494699
                110      0.308120437804
                120      0.306195402483
                130      0.304906886939
                140      0.304149643981
                150       0.30384390618
                160      0.303928136409
                170      0.304354416893
                180      0.305084882654
                190      0.306089438303
                200      0.307343908892
