# Probe 0 (0.5 0.5 0.5)
#             Probe                   0
#              Time
                 10      0.295016408884
                 20      0.205798879141
                 30      0.167935038373
                 40      0.146786292173
                 50      0.133307486618
                 60      0.124026221663
                 70      0.117301814955
                 80      0.112256490364
                 90      0.108371136778
                100      0.105321267998
                110      0.102892862681
                120      0.100939465752
                130     0.0993581988627
                140     0.0980713673001
                150     0.0970211627053
                160     0.0961637659603
                170     0.0954654391869
                180     0.0948998580897
                190     0.0944462448794
                200     0.0940880347529
