# Probe 0 (0.5 0.5 0.5)
#             Probe                   0
#              Time
                 10       0.30096111287
                 20      0.352579127942
                 30      0.384470740978
                 40      0.408827244875
                 50      0.429087005143
                 60      0.446686708797
                 70      0.462373447411
                 80      0.476581444805
                 90      0.489601501843
                100      0.501632480599
                110      0.512818525518
                120      0.523266151733
                130      0.533048789565
                140      0.542240479399
                150      0.550902668938
                160      0.559087163303
                170       0.56683894282
                180      0.574197069793
                190      0.581196129384
                200      0.587866723056
