# Probe 0 (0.5 0.5 0.5)
#             Probe                   0
#              Time
                 10      0.183061356486
                 20       0.11104505081
                 30     0.0839867541441
                 40     0.0700159885468
                 50     0.0616211895036
                 60     0.0561121363989
                 70     0.0522837239947
                 80     0.0495175581731
                 90     0.0474609021145
                100     0.0458994692073
                110       0.04469531379
                120     0.0437558786766
                130     0.0430170931598
                140     0.0424317036342
                150     0.0419650824167
                160     0.0415913595722
                170     0.0412908983618
                180     0.0410485968482
                190     0.0408527145323
                200     0.0406940425442
